<?xml version="1.0" encoding="UTF-8"?>

<!-- generated on 2025-12-26 18:40:11 by Eclipse SUMO GUI Version 1.23.1
<sumoConfiguration xmlns:xsi="http://www.w3.org/2001/XMLSchema-instance" xsi:noNamespaceSchemaLocation="http://sumo.dlr.de/xsd/sumoConfiguration.xsd">

    <input>
        <net-file value="osm_split_lanes.net.xml"/>
        <route-files value="osm.bus.trips.xml,osm.motorcycle.trips.xml,osm.passenger.trips.xml,osm.truck.trips.xml"/>
        <additional-files value="osm.poly.xml.gz,output.add.xml,opposite.add.xml"/>
    </input>

    <output>
        <tripinfo-output value="tripinfos.xml"/>
        <statistic-output value="stats.xml"/>
    </output>

    <processing>
        <lateral-resolution value="0.8"/>
        <ignore-route-errors value="true"/>
        <time-to-teleport value="-1"/>
        <tls.actuated.jam-threshold value="30"/>
    </processing>

    <routing>
        <device.rerouting.adaptation-steps value="18"/>
        <device.rerouting.adaptation-interval value="10"/>
    </routing>

    <report>
        <verbose value="true"/>
        <duration-log.statistics value="true"/>
        <no-step-log value="true"/>
    </report>

    <traci_server>
        <remote-port value="50391"/>
    </traci_server>

    <gui_only>
        <gui-settings-file value="osm.view.xml"/>
    </gui_only>

</sumoConfiguration>
-->

<tripinfos xmlns:xsi="http://www.w3.org/2001/XMLSchema-instance" xsi:noNamespaceSchemaLocation="http://sumo.dlr.de/xsd/tripinfo_file.xsd">
    <tripinfo id="veh14" depart="41.00" departLane="-47755711#3_0" departPos="0.20" departPosLat="0.00" departSpeed="0.00" departDelay="0.46" arrival="79.00" arrivalLane="1132163645#5_0" arrivalPos="2.65" arrivalPosLat="0.00" arrivalSpeed="7.66" duration="38.00" routeLength="203.41" waitingTime="5.00" waitingCount="1" stopTime="0.00" timeLoss="11.43" rerouteNo="1" devices="tripinfo_veh14 routing_veh14" vType="passenger" speedFactor="0.94" vaporized=""/>
    <tripinfo id="motorcycle0" depart="0.00" departLane="-4588215#1_0" departPos="2.30" departPosLat="0.00" departSpeed="0.00" departDelay="0.00" arrival="84.00" arrivalLane="-4396528#3_0" arrivalPos="10.39" arrivalPosLat="0.00" arrivalSpeed="7.18" duration="84.00" routeLength="799.10" waitingTime="1.00" waitingCount="1" stopTime="0.00" timeLoss="16.33" rerouteNo="1" devices="tripinfo_motorcycle0 routing_motorcycle0" vType="motorcycle_motorcycle" speedFactor="1.06" vaporized=""/>
    <tripinfo id="veh11" depart="32.00" departLane="-542983664_0" departPos="0.97" departPosLat="0.00" departSpeed="7.36" departDelay="0.14" arrival="97.00" arrivalLane="-375311155#2_1" arrivalPos="2.20" arrivalPosLat="0.00" arrivalSpeed="9.21" duration="65.00" routeLength="541.50" waitingTime="0.00" waitingCount="0" stopTime="0.00" timeLoss="6.32" rerouteNo="1" devices="tripinfo_veh11 routing_veh11" vType="passenger" speedFactor="1.12" vaporized=""/>
    <tripinfo id="motorcycle12" depart="53.00" departLane="1152723801_0" departPos="2.30" departPosLat="0.00" departSpeed="0.00" departDelay="0.87" arrival="101.00" arrivalLane="81113584#0_0" arrivalPos="13.16" arrivalPosLat="0.00" arrivalSpeed="10.55" duration="48.00" routeLength="387.96" waitingTime="0.00" waitingCount="0" stopTime="0.00" timeLoss="9.70" rerouteNo="1" devices="tripinfo_motorcycle12 routing_motorcycle12" vType="motorcycle_motorcycle" speedFactor="0.88" vaporized=""/>
    <tripinfo id="motorcycle4" depart="18.00" departLane="-1110753055#0_0" departPos="2.30" departPosLat="0.00" departSpeed="0.00" departDelay="0.62" arrival="102.00" arrivalLane="-356359316#1_0" arrivalPos="10.01" arrivalPosLat="0.00" arrivalSpeed="5.96" duration="84.00" routeLength="523.62" waitingTime="15.00" waitingCount="2" stopTime="0.00" timeLoss="29.80" rerouteNo="1" devices="tripinfo_motorcycle4 routing_motorcycle4" vType="motorcycle_motorcycle" speedFactor="0.94" vaporized=""/>
    <tripinfo id="motorcycle8" depart="35.00" departLane="710761406#2_0" departPos="0.20" departPosLat="0.00" departSpeed="0.00" departDelay="0.25" arrival="110.00" arrivalLane="-681299268_0" arrivalPos="0.47" arrivalPosLat="0.00" arrivalSpeed="7.93" duration="75.00" routeLength="525.36" waitingTime="0.00" waitingCount="0" stopTime="0.00" timeLoss="14.76" rerouteNo="1" devices="tripinfo_motorcycle8 routing_motorcycle8" vType="motorcycle_motorcycle" speedFactor="1.05" vaporized=""/>
    <tripinfo id="veh8" depart="24.00" departLane="-327756257#1_0" departPos="2.44" departPosLat="0.00" departSpeed="0.00" departDelay="0.83" arrival="113.00" arrivalLane="23755961_0" arrivalPos="1.13" arrivalPosLat="0.00" arrivalSpeed="5.79" duration="89.00" routeLength="638.18" waitingTime="0.00" waitingCount="0" stopTime="0.00" timeLoss="13.39" rerouteNo="1" devices="tripinfo_veh8 routing_veh8" vType="passenger" speedFactor="1.02" vaporized=""/>
    <tripinfo id="motorcycle10" depart="44.00" departLane="4597322#3_0" departPos="2.30" departPosLat="0.00" departSpeed="0.00" departDelay="0.56" arrival="114.00" arrivalLane="168928174#1_0" arrivalPos="0.13" arrivalPosLat="0.00" arrivalSpeed="4.28" duration="70.00" routeLength="410.79" waitingTime="3.00" waitingCount="1" stopTime="0.00" timeLoss="22.06" rerouteNo="1" devices="tripinfo_motorcycle10 routing_motorcycle10" vType="motorcycle_motorcycle" speedFactor="0.99" vaporized=""/>
    <tripinfo id="veh3" depart="9.00" departLane="4611712_0" departPos="5.10" departPosLat="0.00" departSpeed="0.00" departDelay="0.31" arrival="118.00" arrivalLane="-1228446781#3_0" arrivalPos="0.20" arrivalPosLat="0.00" arrivalSpeed="15.10" duration="109.00" routeLength="859.59" waitingTime="0.00" waitingCount="0" stopTime="0.00" timeLoss="18.37" rerouteNo="1" devices="tripinfo_veh3 routing_veh3" vType="passenger" speedFactor="1.10" vaporized=""/>
    <tripinfo id="veh16" depart="47.00" departLane="1199889721#1_0" departPos="5.10" departPosLat="0.00" departSpeed="0.00" departDelay="0.66" arrival="118.00" arrivalLane="81113584#0_0" arrivalPos="13.16" arrivalPosLat="0.00" arrivalSpeed="6.99" duration="71.00" routeLength="372.00" waitingTime="3.00" waitingCount="1" stopTime="0.00" timeLoss="21.67" rerouteNo="1" devices="tripinfo_veh16 routing_veh16" vType="passenger" speedFactor="0.91" vaporized=""/>
    <tripinfo id="motorcycle17" depart="74.00" departLane="-1151333062_0" departPos="0.20" departPosLat="0.00" departSpeed="0.00" departDelay="0.15" arrival="119.00" arrivalLane="-4611773_0" arrivalPos="0.20" arrivalPosLat="0.00" arrivalSpeed="6.35" duration="45.00" routeLength="325.88" waitingTime="0.00" waitingCount="0" stopTime="0.00" timeLoss="9.18" rerouteNo="1" devices="tripinfo_motorcycle17 routing_motorcycle17" vType="motorcycle_motorcycle" speedFactor="1.01" vaporized=""/>
    <tripinfo id="veh20" depart="58.00" departLane="327462543#0_0" departPos="5.10" departPosLat="0.00" departSpeed="0.00" departDelay="0.08" arrival="119.00" arrivalLane="-1147413288#1_1" arrivalPos="10.27" arrivalPosLat="0.00" arrivalSpeed="13.53" duration="61.00" routeLength="632.79" waitingTime="0.00" waitingCount="0" stopTime="0.00" timeLoss="11.26" rerouteNo="1" devices="tripinfo_veh20 routing_veh20" vType="passenger" speedFactor="1.02" vaporized=""/>
    <tripinfo id="motorcycle6" depart="27.00" departLane="-327462545#3_0" departPos="0.20" departPosLat="0.00" departSpeed="0.00" departDelay="0.94" arrival="124.00" arrivalLane="160971191#3_1" arrivalPos="10.38" arrivalPosLat="0.00" arrivalSpeed="14.03" duration="97.00" routeLength="649.75" waitingTime="36.00" waitingCount="2" stopTime="0.00" timeLoss="51.13" rerouteNo="1" devices="tripinfo_motorcycle6 routing_motorcycle6" vType="motorcycle_motorcycle" speedFactor="1.09" vaporized=""/>
    <tripinfo id="motorcycle15" depart="66.00" departLane="4597336_0" departPos="0.20" departPosLat="0.00" departSpeed="0.00" departDelay="0.84" arrival="126.00" arrivalLane="159081774#0_1" arrivalPos="0.20" arrivalPosLat="0.00" arrivalSpeed="10.89" duration="60.00" routeLength="396.87" waitingTime="4.00" waitingCount="1" stopTime="0.00" timeLoss="19.48" rerouteNo="1" devices="tripinfo_motorcycle15 routing_motorcycle15" vType="motorcycle_motorcycle" speedFactor="1.16" vaporized=""/>
    <tripinfo id="veh0" depart="0.00" departLane="23017852#0_0" departPos="3.07" departPosLat="0.00" departSpeed="0.00" departDelay="0.00" arrival="127.00" arrivalLane="-1132164863_0" arrivalPos="11.00" arrivalPosLat="0.00" arrivalSpeed="8.12" duration="127.00" routeLength="802.44" waitingTime="18.00" waitingCount="2" stopTime="0.00" timeLoss="39.23" rerouteNo="1" devices="tripinfo_veh0 routing_veh0" vType="passenger" speedFactor="1.01" vaporized=""/>
    <tripinfo id="motorcycle27" depart="118.00" departLane="-4597351#1_0" departPos="2.30" departPosLat="0.00" departSpeed="9.62" departDelay="0.71" arrival="127.00" arrivalLane="-4597351#0_0" arrivalPos="7.88" arrivalPosLat="0.00" arrivalSpeed="9.18" duration="9.00" routeLength="66.10" waitingTime="0.00" waitingCount="0" stopTime="0.00" timeLoss="1.93" rerouteNo="1" devices="tripinfo_motorcycle27 routing_motorcycle27" vType="motorcycle_motorcycle" speedFactor="1.15" vaporized=""/>
    <tripinfo id="veh18" depart="53.00" departLane="4396109_0" departPos="5.10" departPosLat="0.00" departSpeed="0.00" departDelay="0.87" arrival="128.00" arrivalLane="25042806#0_0" arrivalPos="10.31" arrivalPosLat="0.00" arrivalSpeed="13.67" duration="75.00" routeLength="488.33" waitingTime="10.00" waitingCount="1" stopTime="0.00" timeLoss="20.64" rerouteNo="1" devices="tripinfo_veh18 routing_veh18" vType="passenger" speedFactor="1.04" vaporized=""/>
    <tripinfo id="motorcycle5" depart="22.00" departLane="199847247#0_0" departPos="0.91" departPosLat="0.00" departSpeed="0.00" departDelay="0.28" arrival="136.00" arrivalLane="1199889721#1_1" arrivalPos="12.01" arrivalPosLat="0.00" arrivalSpeed="7.01" duration="114.00" routeLength="540.94" waitingTime="17.00" waitingCount="2" stopTime="0.00" timeLoss="40.77" rerouteNo="1" devices="tripinfo_motorcycle5 routing_motorcycle5" vType="motorcycle_motorcycle" speedFactor="0.86" vaporized=""/>
    <tripinfo id="motorcycle19" depart="83.00" departLane="-65040946#4_0" departPos="2.30" departPosLat="0.00" departSpeed="0.00" departDelay="0.46" arrival="140.00" arrivalLane="-375459783#0_0" arrivalPos="10.36" arrivalPosLat="0.00" arrivalSpeed="5.21" duration="57.00" routeLength="350.48" waitingTime="4.00" waitingCount="1" stopTime="0.00" timeLoss="18.76" rerouteNo="1" devices="tripinfo_motorcycle19 routing_motorcycle19" vType="motorcycle_motorcycle" speedFactor="0.89" vaporized=""/>
    <tripinfo id="veh10" depart="29.00" departLane="404598741#1_3" departPos="0.20" departPosLat="0.00" departSpeed="0.00" departDelay="0.04" arrival="152.00" arrivalLane="356359316#3_0" arrivalPos="10.21" arrivalPosLat="0.00" arrivalSpeed="8.37" duration="123.00" routeLength="733.35" waitingTime="29.00" waitingCount="2" stopTime="0.00" timeLoss="41.09" rerouteNo="1" devices="tripinfo_veh10 routing_veh10" vType="passenger" speedFactor="1.08" vaporized=""/>
    <tripinfo id="truck13" depart="57.00" departLane="-1147767890_0" departPos="2.78" departPosLat="0.00" departSpeed="3.76" departDelay="0.53" arrival="155.00" arrivalLane="-55495482#1_0" arrivalPos="7.79" arrivalPosLat="0.00" arrivalSpeed="13.30" duration="98.00" routeLength="900.07" waitingTime="9.00" waitingCount="1" stopTime="0.00" timeLoss="30.43" rerouteNo="1" devices="tripinfo_truck13 routing_truck13" vType="truck_truck" speedFactor="0.98" vaporized=""/>
    <tripinfo id="motorcycle25" depart="109.00" departLane="458953718_0" departPos="0.31" departPosLat="0.00" departSpeed="0.00" departDelay="0.40" arrival="158.00" arrivalLane="435164424_0" arrivalPos="10.10" arrivalPosLat="0.00" arrivalSpeed="8.84" duration="49.00" routeLength="279.96" waitingTime="0.00" waitingCount="0" stopTime="0.00" timeLoss="12.29" rerouteNo="1" devices="tripinfo_motorcycle25 routing_motorcycle25" vType="motorcycle_motorcycle" speedFactor="0.93" vaporized=""/>
    <tripinfo id="veh27" depart="79.00" departLane="-22972469#0_0" departPos="5.10" departPosLat="0.00" departSpeed="0.00" departDelay="0.81" arrival="159.00" arrivalLane="375311153_0" arrivalPos="3.73" arrivalPosLat="0.00" arrivalSpeed="7.21" duration="80.00" routeLength="554.62" waitingTime="0.00" waitingCount="0" stopTime="0.00" timeLoss="10.94" rerouteNo="1" devices="tripinfo_veh27 routing_veh27" vType="passenger" speedFactor="0.98" vaporized=""/>
    <tripinfo id="veh19" depart="56.00" departLane="4588219#2_0" departPos="0.81" departPosLat="0.00" departSpeed="0.00" departDelay="0.98" arrival="162.00" arrivalLane="23017852#0_0" arrivalPos="3.07" arrivalPosLat="0.00" arrivalSpeed="6.94" duration="106.00" routeLength="798.85" waitingTime="4.00" waitingCount="1" stopTime="0.00" timeLoss="19.97" rerouteNo="1" devices="tripinfo_veh19 routing_veh19" vType="passenger" speedFactor="1.02" vaporized=""/>
    <tripinfo id="motorcycle3" depart="14.00" departLane="-327462543#2_0" departPos="2.30" departPosLat="0.00" departSpeed="0.00" departDelay="0.97" arrival="163.00" arrivalLane="1152723801_0" arrivalPos="10.30" arrivalPosLat="0.00" arrivalSpeed="6.19" duration="149.00" routeLength="934.71" waitingTime="7.00" waitingCount="2" stopTime="0.00" timeLoss="38.10" rerouteNo="1" devices="tripinfo_motorcycle3 routing_motorcycle3" vType="motorcycle_motorcycle" speedFactor="0.89" vaporized=""/>
    <tripinfo id="motorcycle29" depart="126.00" departLane="4611773_0" departPos="2.30" departPosLat="0.00" departSpeed="0.00" departDelay="0.03" arrival="166.00" arrivalLane="-65040946#3_0" arrivalPos="10.30" arrivalPosLat="0.00" arrivalSpeed="7.20" duration="40.00" routeLength="333.92" waitingTime="0.00" waitingCount="0" stopTime="0.00" timeLoss="7.78" rerouteNo="1" devices="tripinfo_motorcycle29 routing_motorcycle29" vType="motorcycle_motorcycle" speedFactor="1.17" vaporized=""/>
    <tripinfo id="veh4" depart="12.00" departLane="1110759207#0_1" departPos="5.10" departPosLat="0.00" departSpeed="13.93" departDelay="0.42" arrival="167.00" arrivalLane="-1132166349_0" arrivalPos="2.22" arrivalPosLat="0.00" arrivalSpeed="5.50" duration="155.00" routeLength="1296.63" waitingTime="1.00" waitingCount="1" stopTime="0.00" timeLoss="21.47" rerouteNo="1" devices="tripinfo_veh4 routing_veh4" vType="passenger" speedFactor="1.00" vaporized=""/>
    <tripinfo id="truck7" depart="31.00" departLane="-1147413276_0" departPos="7.20" departPosLat="0.00" departSpeed="14.11" departDelay="0.59" arrival="173.00" arrivalLane="-1199889721#0_0" arrivalPos="11.72" arrivalPosLat="-0.20" arrivalSpeed="8.00" duration="142.00" routeLength="1212.16" waitingTime="12.00" waitingCount="2" stopTime="0.00" timeLoss="37.41" rerouteNo="1" devices="tripinfo_truck7 routing_truck7" vType="truck_truck" speedFactor="1.02" vaporized=""/>
    <tripinfo id="truck1" depart="5.00" departLane="-375311158#0_0" departPos="4.95" departPosLat="0.00" departSpeed="0.00" departDelay="0.66" arrival="174.00" arrivalLane="-4597322#2_0" arrivalPos="10.32" arrivalPosLat="0.00" arrivalSpeed="7.07" duration="169.00" routeLength="1209.94" waitingTime="0.00" waitingCount="0" stopTime="0.00" timeLoss="16.83" rerouteNo="1" devices="tripinfo_truck1 routing_truck1" vType="truck_truck" speedFactor="0.92" vaporized=""/>
    <tripinfo id="veh24" depart="70.00" departLane="22972470#2_0" departPos="0.20" departPosLat="0.00" departSpeed="0.00" departDelay="0.50" arrival="177.00" arrivalLane="1124763679#0_0" arrivalPos="0.20" arrivalPosLat="0.00" arrivalSpeed="5.63" duration="107.00" routeLength="957.34" waitingTime="0.00" waitingCount="0" stopTime="0.00" timeLoss="22.21" rerouteNo="1" devices="tripinfo_veh24 routing_veh24" vType="passenger" speedFactor="0.96" vaporized=""/>
    <tripinfo id="bus6" depart="52.00" departLane="-1147413276_0" departPos="12.10" departPosLat="0.00" departSpeed="13.89" departDelay="0.01" arrival="178.00" arrivalLane="-1199889721#0_1" arrivalPos="11.72" arrivalPosLat="0.25" arrivalSpeed="7.84" duration="126.00" routeLength="1207.26" waitingTime="4.00" waitingCount="1" stopTime="0.00" timeLoss="20.40" rerouteNo="1" devices="tripinfo_bus6 routing_bus6" vType="bus_bus" speedFactor="1.00" vaporized=""/>
    <tripinfo id="motorcycle1" depart="5.00" departLane="328064919#0_0" departPos="2.30" departPosLat="0.00" departSpeed="13.03" departDelay="0.66" arrival="181.00" arrivalLane="25041996#0_2" arrivalPos="4.24" arrivalPosLat="0.00" arrivalSpeed="5.85" duration="176.00" routeLength="928.57" waitingTime="47.00" waitingCount="3" stopTime="0.00" timeLoss="76.91" rerouteNo="1" devices="tripinfo_motorcycle1 routing_motorcycle1" vType="motorcycle_motorcycle" speedFactor="0.94" vaporized=""/>
    <tripinfo id="veh44" depart="128.00" departLane="-1151333062_0" departPos="0.20" departPosLat="0.00" departSpeed="0.00" departDelay="0.58" arrival="182.00" arrivalLane="1151333058_0" arrivalPos="0.20" arrivalPosLat="0.00" arrivalSpeed="8.24" duration="54.00" routeLength="418.92" waitingTime="0.00" waitingCount="0" stopTime="0.00" timeLoss="7.15" rerouteNo="1" devices="tripinfo_veh44 routing_veh44" vType="passenger" speedFactor="1.09" vaporized=""/>
    <tripinfo id="motorcycle11" depart="50.00" departLane="4396528#3_0" departPos="2.30" departPosLat="0.00" departSpeed="0.00" departDelay="2.22" arrival="183.00" arrivalLane="356359316#2_0" arrivalPos="10.61" arrivalPosLat="0.00" arrivalSpeed="6.89" duration="133.00" routeLength="951.76" waitingTime="0.00" waitingCount="0" stopTime="0.00" timeLoss="24.54" rerouteNo="1" devices="tripinfo_motorcycle11 routing_motorcycle11" vType="motorcycle_motorcycle" speedFactor="0.93" vaporized=""/>
    <tripinfo id="bus1" depart="9.00" departLane="4611774#4_0" departPos="10.38" departPosLat="0.00" departSpeed="0.00" departDelay="0.33" arrival="184.00" arrivalLane="-1152880160#0_0" arrivalPos="0.20" arrivalPosLat="0.00" arrivalSpeed="7.84" duration="175.00" routeLength="1356.72" waitingTime="9.00" waitingCount="1" stopTime="0.00" timeLoss="30.45" rerouteNo="1" devices="tripinfo_bus1 routing_bus1" vType="bus_bus" speedFactor="1.00" vaporized=""/>
    <tripinfo id="veh38" depart="111.00" departLane="-1147413271#1_0" departPos="5.10" departPosLat="0.00" departSpeed="13.99" departDelay="0.95" arrival="184.00" arrivalLane="1132166702#0_0" arrivalPos="0.83" arrivalPosLat="0.00" arrivalSpeed="7.72" duration="73.00" routeLength="633.48" waitingTime="0.00" waitingCount="0" stopTime="0.00" timeLoss="10.03" rerouteNo="1" devices="tripinfo_veh38 routing_veh38" vType="passenger" speedFactor="1.01" vaporized=""/>
    <tripinfo id="motorcycle16" depart="70.00" departLane="25042806#2_0" departPos="2.30" departPosLat="0.00" departSpeed="0.00" departDelay="0.50" arrival="189.00" arrivalLane="-1136657266#0_0" arrivalPos="10.34" arrivalPosLat="0.00" arrivalSpeed="8.37" duration="119.00" routeLength="883.64" waitingTime="11.00" waitingCount="2" stopTime="0.00" timeLoss="37.07" rerouteNo="1" devices="tripinfo_motorcycle16 routing_motorcycle16" vType="motorcycle_motorcycle" speedFactor="1.02" vaporized=""/>
    <tripinfo id="bus0" depart="0.00" departLane="159081777#1_0" departPos="0.38" departPosLat="0.00" departSpeed="0.00" departDelay="0.00" arrival="192.00" arrivalLane="-1132163645#3_0" arrivalPos="4.30" arrivalPosLat="0.00" arrivalSpeed="4.77" duration="192.00" routeLength="1012.51" waitingTime="15.00" waitingCount="3" stopTime="0.00" timeLoss="50.47" rerouteNo="1" devices="tripinfo_bus0 routing_bus0" vType="bus_bus" speedFactor="1.00" vaporized=""/>
    <tripinfo id="veh32" depart="93.00" departLane="24214089#1_1" departPos="5.10" departPosLat="0.00" departSpeed="0.00" departDelay="0.33" arrival="192.00" arrivalLane="1147413271#0_0" arrivalPos="11.00" arrivalPosLat="0.00" arrivalSpeed="13.92" duration="99.00" routeLength="739.15" waitingTime="6.00" waitingCount="1" stopTime="0.00" timeLoss="23.20" rerouteNo="1" devices="tripinfo_veh32 routing_veh32" vType="passenger" speedFactor="1.02" vaporized=""/>
    <tripinfo id="motorcycle37" depart="161.00" departLane="-1147413234#2_0" departPos="2.30" departPosLat="0.00" departSpeed="0.00" departDelay="0.27" arrival="193.00" arrivalLane="1057179327#0_0" arrivalPos="5.72" arrivalPosLat="0.00" arrivalSpeed="9.28" duration="32.00" routeLength="166.80" waitingTime="1.00" waitingCount="1" stopTime="0.00" timeLoss="10.33" rerouteNo="1" devices="tripinfo_motorcycle37 routing_motorcycle37" vType="motorcycle_motorcycle" speedFactor="0.96" vaporized=""/>
    <tripinfo id="motorcycle13" depart="57.00" departLane="-66071387#3_0" departPos="2.30" departPosLat="0.00" departSpeed="0.00" departDelay="0.53" arrival="195.00" arrivalLane="1228558179#1_0" arrivalPos="3.11" arrivalPosLat="0.00" arrivalSpeed="5.14" duration="138.00" routeLength="790.31" waitingTime="8.00" waitingCount="3" stopTime="0.00" timeLoss="36.85" rerouteNo="1" devices="tripinfo_motorcycle13 routing_motorcycle13" vType="motorcycle_motorcycle" speedFactor="0.94" vaporized=""/>
    <tripinfo id="motorcycle23" depart="100.00" departLane="884209962#3_0" departPos="0.20" departPosLat="0.00" departSpeed="0.00" departDelay="0.09" arrival="195.00" arrivalLane="23017853_0" arrivalPos="2.07" arrivalPosLat="0.00" arrivalSpeed="6.08" duration="95.00" routeLength="583.98" waitingTime="0.00" waitingCount="0" stopTime="0.00" timeLoss="20.24" rerouteNo="1" devices="tripinfo_motorcycle23 routing_motorcycle23" vType="motorcycle_motorcycle" speedFactor="0.95" vaporized=""/>
    <tripinfo id="motorcycle41" depart="179.00" departLane="24214089#0_0" departPos="2.30" departPosLat="0.00" departSpeed="0.00" departDelay="0.90" arrival="198.00" arrivalLane="11845212_0" arrivalPos="7.37" arrivalPosLat="0.00" arrivalSpeed="13.40" duration="19.00" routeLength="237.13" waitingTime="0.00" waitingCount="0" stopTime="0.00" timeLoss="3.24" rerouteNo="1" devices="tripinfo_motorcycle41 routing_motorcycle41" vType="motorcycle_motorcycle" speedFactor="1.09" vaporized=""/>
    <tripinfo id="motorcycle22" depart="96.00" departLane="-168935757#0_0" departPos="2.30" departPosLat="0.00" departSpeed="0.00" departDelay="0.43" arrival="199.00" arrivalLane="1057178318_0" arrivalPos="2.99" arrivalPosLat="0.00" arrivalSpeed="7.89" duration="103.00" routeLength="840.01" waitingTime="4.00" waitingCount="1" stopTime="0.00" timeLoss="24.29" rerouteNo="1" devices="tripinfo_motorcycle22 routing_motorcycle22" vType="motorcycle_motorcycle" speedFactor="0.92" vaporized=""/>
    <tripinfo id="motorcycle36" depart="157.00" departLane="43376693#0_0" departPos="0.20" departPosLat="0.00" departSpeed="0.00" departDelay="0.62" arrival="212.00" arrivalLane="1123184404#0_1" arrivalPos="8.53" arrivalPosLat="0.00" arrivalSpeed="7.80" duration="55.00" routeLength="304.47" waitingTime="9.00" waitingCount="1" stopTime="0.00" timeLoss="18.64" rerouteNo="1" devices="tripinfo_motorcycle36 routing_motorcycle36" vType="motorcycle_motorcycle" speedFactor="1.03" vaporized=""/>
    <tripinfo id="veh12" depart="36.00" departLane="710761406#2_0" departPos="0.20" departPosLat="0.00" departSpeed="0.00" departDelay="1.25" arrival="213.00" arrivalLane="1116508491_0" arrivalPos="1.28" arrivalPosLat="0.00" arrivalSpeed="5.52" duration="177.00" routeLength="1216.33" waitingTime="27.00" waitingCount="2" stopTime="0.00" timeLoss="55.14" rerouteNo="1" devices="tripinfo_veh12 routing_veh12" vType="passenger" speedFactor="1.02" vaporized=""/>
    <tripinfo id="motorcycle14" depart="63.00" departLane="4588215#6_0" departPos="2.30" departPosLat="0.00" departSpeed="0.00" departDelay="2.18" arrival="214.00" arrivalLane="199847244#0_0" arrivalPos="0.20" arrivalPosLat="0.00" arrivalSpeed="11.06" duration="151.00" routeLength="931.76" waitingTime="7.00" waitingCount="1" stopTime="0.00" timeLoss="39.90" rerouteNo="1" devices="tripinfo_motorcycle14 routing_motorcycle14" vType="motorcycle_motorcycle" speedFactor="0.94" vaporized=""/>
    <tripinfo id="motorcycle38" depart="166.00" departLane="9657820#0_0" departPos="0.20" departPosLat="0.00" departSpeed="0.00" departDelay="0.93" arrival="215.00" arrivalLane="11845184#0_1" arrivalPos="7.52" arrivalPosLat="0.00" arrivalSpeed="13.72" duration="49.00" routeLength="290.95" waitingTime="14.00" waitingCount="2" stopTime="0.00" timeLoss="24.72" rerouteNo="1" devices="tripinfo_motorcycle38 routing_motorcycle38" vType="motorcycle_motorcycle" speedFactor="1.09" vaporized=""/>
    <tripinfo id="motorcycle33" depart="144.00" departLane="1228562464#1_0" departPos="0.20" departPosLat="0.00" departSpeed="0.00" departDelay="0.65" arrival="217.00" arrivalLane="508410318#0_0" arrivalPos="0.20" arrivalPosLat="0.00" arrivalSpeed="5.18" duration="73.00" routeLength="562.55" waitingTime="2.00" waitingCount="2" stopTime="0.00" timeLoss="14.21" rerouteNo="1" devices="tripinfo_motorcycle33 routing_motorcycle33" vType="motorcycle_motorcycle" speedFactor="1.18" vaporized=""/>
    <tripinfo id="veh42" depart="122.00" departLane="28108856#0_1" departPos="5.10" departPosLat="0.00" departSpeed="0.00" departDelay="0.37" arrival="217.00" arrivalLane="160971194#1_3" arrivalPos="10.28" arrivalPosLat="0.00" arrivalSpeed="11.21" duration="95.00" routeLength="652.34" waitingTime="7.00" waitingCount="2" stopTime="0.00" timeLoss="36.51" rerouteNo="1" devices="tripinfo_veh42 routing_veh42" vType="passenger" speedFactor="0.83" vaporized=""/>
    <tripinfo id="veh1" depart="3.00" departLane="-4588222#0_0" departPos="5.10" departPosLat="0.00" departSpeed="0.00" departDelay="0.10" arrival="218.00" arrivalLane="-475533030_0" arrivalPos="11.90" arrivalPosLat="0.00" arrivalSpeed="7.59" duration="215.00" routeLength="1479.85" waitingTime="23.00" waitingCount="5" stopTime="0.00" timeLoss="64.49" rerouteNo="1" devices="tripinfo_veh1 routing_veh1" vType="passenger" speedFactor="1.08" vaporized=""/>
    <tripinfo id="truck22" depart="96.00" departLane="404598738#0_0" departPos="0.20" departPosLat="0.00" departSpeed="0.00" departDelay="0.43" arrival="218.00" arrivalLane="1132165078#1_0" arrivalPos="10.60" arrivalPosLat="0.00" arrivalSpeed="14.46" duration="122.00" routeLength="1025.36" waitingTime="0.00" waitingCount="0" stopTime="0.00" timeLoss="19.56" rerouteNo="1" devices="tripinfo_truck22 routing_truck22" vType="truck_truck" speedFactor="1.08" vaporized=""/>
    <tripinfo id="motorcycle34" depart="148.00" departLane="-1151333057#0_0" departPos="2.05" departPosLat="0.00" departSpeed="0.00" departDelay="0.31" arrival="219.00" arrivalLane="-1136657266#1_0" arrivalPos="2.01" arrivalPosLat="0.00" arrivalSpeed="8.68" duration="71.00" routeLength="504.95" waitingTime="0.00" waitingCount="0" stopTime="0.00" timeLoss="14.14" rerouteNo="1" devices="tripinfo_motorcycle34 routing_motorcycle34" vType="motorcycle_motorcycle" speedFactor="1.10" vaporized=""/>
    <tripinfo id="motorcycle9" depart="40.00" departLane="-1151333057#1_0" departPos="2.30" departPosLat="0.00" departSpeed="0.00" departDelay="0.90" arrival="223.00" arrivalLane="-1152876522#1_0" arrivalPos="10.60" arrivalPosLat="0.00" arrivalSpeed="15.22" duration="183.00" routeLength="1101.02" waitingTime="47.00" waitingCount="4" stopTime="0.00" timeLoss="79.53" rerouteNo="1" devices="tripinfo_motorcycle9 routing_motorcycle9" vType="motorcycle_motorcycle" speedFactor="1.12" vaporized=""/>
    <tripinfo id="veh17" depart="50.00" departLane="-753316506_0" departPos="0.20" departPosLat="0.00" departSpeed="0.00" departDelay="0.77" arrival="224.00" arrivalLane="166260138#0_0" arrivalPos="0.20" arrivalPosLat="0.00" arrivalSpeed="5.95" duration="174.00" routeLength="1316.75" waitingTime="4.00" waitingCount="1" stopTime="0.00" timeLoss="26.60" rerouteNo="1" devices="tripinfo_veh17 routing_veh17" vType="passenger" speedFactor="0.91" vaporized=""/>
    <tripinfo id="truck23" depart="100.00" departLane="9657820#0_0" departPos="0.20" departPosLat="0.00" departSpeed="0.00" departDelay="0.09" arrival="226.00" arrivalLane="1191472404_0" arrivalPos="10.33" arrivalPosLat="0.00" arrivalSpeed="7.55" duration="126.00" routeLength="789.70" waitingTime="6.00" waitingCount="2" stopTime="0.00" timeLoss="35.00" rerouteNo="1" devices="tripinfo_truck23 routing_truck23" vType="truck_truck" speedFactor="0.97" vaporized=""/>
    <tripinfo id="bus4" depart="35.00" departLane="43376693#3_0" departPos="1.63" departPosLat="0.00" departSpeed="0.00" departDelay="0.34" arrival="230.00" arrivalLane="-1079386620#0_0" arrivalPos="10.31" arrivalPosLat="0.00" arrivalSpeed="7.50" duration="195.00" routeLength="1436.47" waitingTime="0.00" waitingCount="0" stopTime="0.00" timeLoss="27.43" rerouteNo="1" devices="tripinfo_bus4 routing_bus4" vType="bus_bus" speedFactor="1.00" vaporized=""/>
    <tripinfo id="motorcycle2" depart="9.00" departLane="-9657820#0_0" departPos="0.20" departPosLat="0.00" departSpeed="0.00" departDelay="0.31" arrival="240.00" arrivalLane="-1132163645#7_0" arrivalPos="0.61" arrivalPosLat="0.00" arrivalSpeed="5.99" duration="231.00" routeLength="1826.11" waitingTime="7.00" waitingCount="2" stopTime="0.00" timeLoss="49.79" rerouteNo="1" devices="tripinfo_motorcycle2 routing_motorcycle2" vType="motorcycle_motorcycle" speedFactor="1.05" vaporized=""/>
    <tripinfo id="motorcycle35" depart="153.00" departLane="-1152723807_0" departPos="0.54" departPosLat="0.00" departSpeed="0.00" departDelay="0.96" arrival="240.00" arrivalLane="22972470#0_0" arrivalPos="3.89" arrivalPosLat="0.00" arrivalSpeed="5.30" duration="87.00" routeLength="662.86" waitingTime="0.00" waitingCount="0" stopTime="0.00" timeLoss="18.07" rerouteNo="1" devices="tripinfo_motorcycle35 routing_motorcycle35" vType="motorcycle_motorcycle" speedFactor="0.90" vaporized=""/>